Title: * C:\Program Files (x86)\LTC\LTspiceIV\Draft3.asc
Date: Wed Apr 13 13:11:56 2016
Plotname: AC Analysis
Flags: complex forward log
No. Variables: 6
No. Points:          162
Offset:   0.0000000000000000e+000
Command: Linear Technology Corporation LTspice IV
Variables:
	0	frequency	frequency
	1	V(out)	voltage
	2	V(n001)	voltage
	3	I(C1)	device_current
	4	I(R1)	device_current
	5	I(V1)	device_current
Values:
0		5.000000000000000e+001,0.000000000000000e+000
	9.959635119242900e-001,6.340500642476585e-002
	1.000000000000000e+000,0.000000000000000e+000
	-9.959635119242902e-005,-6.340500642476666e-006
	9.959635119242901e-005,6.340500642476585e-006
	-9.959635119242902e-005,-6.340500642476772e-006
1		5.116464961403771e+001,0.000000000000000e+000
	9.961444833751415e-001,6.197299102362198e-002
	1.000000000000000e+000,0.000000000000000e+000
	-9.961444833751417e-005,-6.197299102362215e-006
	9.961444833751415e-005,6.197299102362198e-006
	-9.961444833751417e-005,-6.197299102362122e-006
2		5.235642740254497e+001,0.000000000000000e+000
	9.963173711730610e-001,6.057282453264085e-002
	1.000000000000000e+000,0.000000000000000e+000
	-9.963173711730610e-005,-6.057282453263984e-006
	9.963173711730610e-005,6.057282453264085e-006
	-9.963173711730610e-005,-6.057282453263970e-006
3		5.357596526188031e+001,0.000000000000000e+000
	9.964825337686527e-001,5.920383148630239e-002
	1.000000000000000e+000,0.000000000000000e+000
	-9.964825337686527e-005,-5.920383148630476e-006
	9.964825337686527e-005,5.920383148630240e-006
	-9.964825337686527e-005,-5.920383148630415e-006
4		5.482390980715924e+001,0.000000000000000e+000
	9.966403139486669e-001,5.786534853407160e-002
	1.000000000000000e+000,0.000000000000000e+000
	-9.966403139486669e-005,-5.786534853407113e-006
	9.966403139486670e-005,5.786534853407161e-006
	-9.966403139486669e-005,-5.786534853407035e-006
5		5.610092271509816e+001,0.000000000000000e+000
	9.967910395001942e-001,5.655672437753666e-002
	1.000000000000000e+000,0.000000000000000e+000
	-9.967910395001943e-005,-5.655672437753361e-006
	9.967910395001943e-005,5.655672437753667e-006
	-9.967910395001943e-005,-5.655672437753292e-006
6		5.740768107484412e+001,0.000000000000000e+000
	9.969350238484971e-001,5.527731969527414e-002
	1.000000000000000e+000,0.000000000000000e+000
	-9.969350238484971e-005,-5.527731969527585e-006
	9.969350238484971e-005,5.527731969527414e-006
	-9.969350238484971e-005,-5.527731969527487e-006
7		5.874487774697646e+001,0.000000000000000e+000
	9.970725666693598e-001,5.402650705658149e-002
	1.000000000000000e+000,0.000000000000000e+000
	-9.970725666693600e-005,-5.402650705658091e-006
	9.970725666693600e-005,5.402650705658149e-006
	-9.970725666693600e-005,-5.402650705658030e-006
8		6.011322173087062e+001,0.000000000000000e+000
	9.972039544768226e-001,5.280367082513816e-002
	1.000000000000000e+000,0.000000000000000e+000
	-9.972039544768228e-005,-5.280367082514067e-006
	9.972039544768226e-005,5.280367082513816e-006
	-9.972039544768228e-005,-5.280367082513993e-006
9		6.151343854061905e+001,0.000000000000000e+000
	9.973294611871634e-001,5.160820705358547e-002
	1.000000000000000e+000,0.000000000000000e+000
	-9.973294611871632e-005,-5.160820705358576e-006
	9.973294611871634e-005,5.160820705358547e-006
	-9.973294611871632e-005,-5.160820705358638e-006
10		6.294627058970833e+001,0.000000000000000e+000
	9.974493486599543e-001,5.043952336994480e-002
	1.000000000000000e+000,0.000000000000000e+000
	-9.974493486599543e-005,-5.043952336994567e-006
	9.974493486599543e-005,5.043952336994480e-006
	-9.974493486599543e-005,-5.043952336994569e-006
11		6.441247758465666e+001,0.000000000000000e+000
	9.975638672170217e-001,4.929703885673082e-002
	1.000000000000000e+000,0.000000000000000e+000
	-9.975638672170217e-005,-4.929703885672967e-006
	9.975638672170217e-005,4.929703885673082e-006
	-9.975638672170217e-005,-4.929703885673143e-006
12		6.591283692782031e+001,0.000000000000000e+000
	9.976732561401029e-001,4.818018392355515e-002
	1.000000000000000e+000,0.000000000000000e+000
	-9.976732561401029e-005,-4.818018392355290e-006
	9.976732561401031e-005,4.818018392355515e-006
	-9.976732561401029e-005,-4.818018392355097e-006
13		6.744814412958263e+001,0.000000000000000e+000
	9.977777441479853e-001,4.708840017395894e-002
	1.000000000000000e+000,0.000000000000000e+000
	-9.977777441479853e-005,-4.708840017395964e-006
	9.977777441479853e-005,4.708840017395894e-006
	-9.977777441479853e-005,-4.708840017395889e-006
14		6.901921323014419e+001,0.000000000000000e+000
	9.978775498538877e-001,4.602114026716026e-002
	1.000000000000000e+000,0.000000000000000e+000
	-9.978775498538877e-005,-4.602114026715962e-006
	9.978775498538877e-005,4.602114026716026e-006
	-9.978775498538877e-005,-4.602114026715839e-006
15		7.062687723113766e+001,0.000000000000000e+000
	9.979728822038234e-001,4.497786777535141e-002
	1.000000000000000e+000,0.000000000000000e+000
	-9.979728822038234e-005,-4.497786777535189e-006
	9.979728822038234e-005,4.497786777535141e-006
	-9.979728822038234e-005,-4.497786777535057e-006
16		7.227198853729631e+001,0.000000000000000e+000
	9.980639408966685e-001,4.395805703713506e-002
	1.000000000000000e+000,0.000000000000000e+000
	-9.980639408966686e-005,-4.395805703713252e-006
	9.980639408966685e-005,4.395805703713506e-006
	-9.980639408966686e-005,-4.395805703713302e-006
17		7.395541940841031e+001,0.000000000000000e+000
	9.981509167866300e-001,4.296119300764413e-002
	1.000000000000000e+000,0.000000000000000e+000
	-9.981509167866301e-005,-4.296119300764284e-006
	9.981509167866301e-005,4.296119300764413e-006
	-9.981509167866301e-005,-4.296119300764133e-006
18		7.567806242181034e+001,0.000000000000000e+000
	9.982339922687984e-001,4.198677110584924e-002
	1.000000000000000e+000,0.000000000000000e+000
	-9.982339922687984e-005,-4.198677110584859e-006
	9.982339922687985e-005,4.198677110584924e-006
	-9.982339922687984e-005,-4.198677110585011e-006
19		7.744083094562400e+001,0.000000000000000e+000
	9.983133416484361e-001,4.103429705951910e-002
	1.000000000000000e+000,0.000000000000000e+000
	-9.983133416484362e-005,-4.103429705952248e-006
	9.983133416484361e-005,4.103429705951910e-006
	-9.983133416484362e-005,-4.103429705952337e-006
20		7.924465962305560e+001,0.000000000000000e+000
	9.983891314946450e-001,4.010328674826355e-002
	1.000000000000000e+000,0.000000000000000e+000
	-9.983891314946451e-005,-4.010328674826286e-006
	9.983891314946451e-005,4.010328674826355e-006
	-9.983891314946451e-005,-4.010328674826109e-006
21		8.109050486794642e+001,0.000000000000000e+000
	9.984615209790236e-001,3.919326604505529e-002
	1.000000000000000e+000,0.000000000000000e+000
	-9.984615209790237e-005,-3.919326604505275e-006
	9.984615209790237e-005,3.919326604505529e-006
	-9.984615209790237e-005,-3.919326604505391e-006
22		8.297934537187796e+001,0.000000000000000e+000
	9.985306621999163e-001,3.830377065659505e-002
	1.000000000000000e+000,0.000000000000000e+000
	-9.985306621999162e-005,-3.830377065659373e-006
	9.985306621999163e-005,3.830377065659505e-006
	-9.985306621999162e-005,-3.830377065659318e-006
23		8.491218262308713e+001,0.000000000000000e+000
	9.985967004928263e-001,3.743434596285543e-002
	1.000000000000000e+000,0.000000000000000e+000
	-9.985967004928263e-005,-3.743434596285747e-006
	9.985967004928264e-005,3.743434596285543e-006
	-9.985967004928263e-005,-3.743434596285671e-006
24		8.689004143746868e+001,0.000000000000000e+000
	9.986597747275520e-001,3.658454685611183e-002
	1.000000000000000e+000,0.000000000000000e+000
	-9.986597747275520e-005,-3.658454685611419e-006
	9.986597747275520e-005,3.658454685611183e-006
	-9.986597747275520e-005,-3.658454685611344e-006
25		8.891397050194604e+001,0.000000000000000e+000
	9.987200175925806e-001,3.575393757974287e-002
	1.000000000000000e+000,0.000000000000000e+000
	-9.987200175925806e-005,-3.575393757974263e-006
	9.987200175925806e-005,3.575393757974287e-006
	-9.987200175925806e-005,-3.575393757974162e-006
26		9.098504293049906e+001,0.000000000000000e+000
	9.987775558672617e-001,3.494209156705939e-002
	1.000000000000000e+000,0.000000000000000e+000
	-9.987775558672617e-005,-3.494209156705596e-006
	9.987775558672617e-005,3.494209156705939e-006
	-9.987775558672617e-005,-3.494209156705563e-006
27		9.310435683314326e+001,0.000000000000000e+000
	9.988325106822572e-001,3.414859128039856e-002
	1.000000000000000e+000,0.000000000000000e+000
	-9.988325106822572e-005,-3.414859128039978e-006
	9.988325106822573e-005,3.414859128039857e-006
	-9.988325106822572e-005,-3.414859128040172e-006
28		9.527303589816224e+001,0.000000000000000e+000
	9.988849977687515e-001,3.337302805069955e-002
	1.000000000000000e+000,0.000000000000000e+000
	-9.988849977687515e-005,-3.337302805070040e-006
	9.988849977687516e-005,3.337302805069955e-006
	-9.988849977687515e-005,-3.337302805070039e-006
29		9.749222998790214e+001,0.000000000000000e+000
	9.989351276968826e-001,3.261500191775717e-002
	1.000000000000000e+000,0.000000000000000e+000
	-9.989351276968827e-005,-3.261500191776050e-006
	9.989351276968827e-005,3.261500191775717e-006
	-9.989351276968827e-005,-3.261500191776082e-006
30		9.976311574844384e+001,0.000000000000000e+000
	9.989830061038459e-001,3.187412147133310e-002
	1.000000000000000e+000,0.000000000000000e+000
	-9.989830061038459e-005,-3.187412147133151e-006
	9.989830061038461e-005,3.187412147133310e-006
	-9.989830061038459e-005,-3.187412147133244e-006
31		1.020868972334763e+002,0.000000000000000e+000
	9.990287339120948e-001,3.115000369328658e-002
	1.000000000000000e+000,0.000000000000000e+000
	-9.990287339120950e-005,-3.115000369328424e-006
	9.990287339120949e-005,3.115000369328658e-006
	-9.990287339120950e-005,-3.115000369328415e-006
32		1.044648065427018e+002,0.000000000000000e+000
	9.990724075380574e-001,3.044227380087195e-002
	1.000000000000000e+000,0.000000000000000e+000
	-9.990724075380573e-005,-3.044227380086934e-006
	9.990724075380574e-005,3.044227380087195e-006
	-9.990724075380573e-005,-3.044227380086771e-006
33		1.068981044751115e+002,0.000000000000000e+000
	9.991141190917626e-001,2.975056509133538e-002
	1.000000000000000e+000,0.000000000000000e+000
	-9.991141190917627e-005,-2.975056509133596e-006
	9.991141190917627e-005,2.975056509133538e-006
	-9.991141190917627e-005,-2.975056509133423e-006
34		1.093880811974775e+002,0.000000000000000e+000
	9.991539565677612e-001,2.907451878793010e-002
	1.000000000000000e+000,0.000000000000000e+000
	-9.991539565677612e-005,-2.907451878792611e-006
	9.991539565677612e-005,2.907451878793011e-006
	-9.991539565677612e-005,-2.907451878792541e-006
35		1.119360569284168e+002,0.000000000000000e+000
	9.991920040277056e-001,2.841378388745708e-002
	1.000000000000000e+000,0.000000000000000e+000
	-9.991920040277057e-005,-2.841378388745912e-006
	9.991920040277057e-005,2.841378388745708e-006
	-9.991920040277057e-005,-2.841378388746072e-006
36		1.145433826383885e+002,0.000000000000000e+000
	9.992283417749478e-001,2.776801700942647e-002
	1.000000000000000e+000,0.000000000000000e+000
	-9.992283417749479e-005,-2.776801700943076e-006
	9.992283417749479e-005,2.776801700942647e-006
	-9.992283417749479e-005,-2.776801700942952e-006
37		1.172114407659959e+002,0.000000000000000e+000
	9.992630465214870e-001,2.713688224692475e-002
	1.000000000000000e+000,0.000000000000000e+000
	-9.992630465214872e-005,-2.713688224692621e-006
	9.992630465214870e-005,2.713688224692475e-006
	-9.992630465214872e-005,-2.713688224692621e-006
38		1.199416459509743e+002,0.000000000000000e+000
	9.992961915475980e-001,2.652005101926213e-002
	1.000000000000000e+000,0.000000000000000e+000
	-9.992961915475980e-005,-2.652005101926566e-006
	9.992961915475980e-005,2.652005101926214e-006
	-9.992961915475980e-005,-2.652005101926383e-006
39		1.227354457842513e+002,0.000000000000000e+000
	9.993278468544518e-001,2.591720192646657e-002
	1.000000000000000e+000,0.000000000000000e+000
	-9.993278468544518e-005,-2.591720192646410e-006
	9.993278468544518e-005,2.591720192646658e-006
	-9.993278468544518e-005,-2.591720192646543e-006
40		1.255943215754788e+002,0.000000000000000e+000
	9.993580793100261e-001,2.532802060568107e-002
	1.000000000000000e+000,0.000000000000000e+000
	-9.993580793100262e-005,-2.532802060567744e-006
	9.993580793100262e-005,2.532802060568107e-006
	-9.993580793100262e-005,-2.532802060567670e-006
41		1.285197891384430e+002,0.000000000000000e+000
	9.993869527885974e-001,2.475219958951435e-002
	1.000000000000000e+000,0.000000000000000e+000
	-9.993869527885975e-005,-2.475219958951790e-006
	9.993869527885975e-005,2.475219958951435e-006
	-9.993869527885975e-005,-2.475219958952141e-006
42		1.315133995947689e+002,0.000000000000000e+000
	9.994145283040878e-001,2.418943816638703e-002
	1.000000000000000e+000,0.000000000000000e+000
	-9.994145283040880e-005,-2.418943816638660e-006
	9.994145283040879e-005,2.418943816638703e-006
	-9.994145283040880e-005,-2.418943816638250e-006
43		1.345767401963456e+002,0.000000000000000e+000
	9.994408641375314e-001,2.363944224290893e-002
	1.000000000000000e+000,0.000000000000000e+000
	-9.994408641375315e-005,-2.363944224291144e-006
	9.994408641375315e-005,2.363944224290893e-006
	-9.994408641375315e-005,-2.363944224290787e-006
44		1.377114351669081e+002,0.000000000000000e+000
	9.994660159589170e-001,2.310192420831719e-002
	1.000000000000000e+000,0.000000000000000e+000
	-9.994660159589171e-005,-2.310192420831696e-006
	9.994660159589171e-005,2.310192420831719e-006
	-9.994660159589171e-005,-2.310192420832032e-006
45		1.409191465632224e+002,0.000000000000000e+000
	9.994900369436471e-001,2.257660280099911e-002
	1.000000000000000e+000,0.000000000000000e+000
	-9.994900369436471e-005,-2.257660280099661e-006
	9.994900369436472e-005,2.257660280099910e-006
	-9.994900369436471e-005,-2.257660280099993e-006
46		1.442015751563300e+002,0.000000000000000e+000
	9.995129778838487e-001,2.206320297711835e-002
	1.000000000000000e+000,0.000000000000000e+000
	-9.995129778838489e-005,-2.206320297712354e-006
	9.995129778838489e-005,2.206320297711835e-006
	-9.995129778838489e-005,-2.206320297712221e-006
47		1.475604613333190e+002,0.000000000000000e+000
	9.995348872947600e-001,2.156145578135859e-002
	1.000000000000000e+000,0.000000000000000e+000
	-9.995348872947599e-005,-2.156145578135441e-006
	9.995348872947601e-005,2.156145578135859e-006
	-9.995348872947599e-005,-2.156145578135170e-006
48		1.509975860201005e+002,0.000000000000000e+000
	9.995558115164028e-001,2.107109821979398e-002
	1.000000000000000e+000,0.000000000000000e+000
	-9.995558115164027e-005,-2.107109821979441e-006
	9.995558115164029e-005,2.107109821979398e-006
	-9.995558115164027e-005,-2.107109821979092e-006
49		1.545147716256792e+002,0.000000000000000e+000
	9.995757948107539e-001,2.059187313489223e-002
	1.000000000000000e+000,0.000000000000000e+000
	-9.995757948107541e-005,-2.059187313489465e-006
	9.995757948107539e-005,2.059187313489224e-006
	-9.995757948107541e-005,-2.059187313489808e-006
50		1.581138830084187e+002,0.000000000000000e+000
	9.995948794546035e-001,2.012352908265199e-002
	1.000000000000000e+000,0.000000000000000e+000
	-9.995948794546033e-005,-2.012352908264699e-006
	9.995948794546035e-005,2.012352908265200e-006
	-9.995948794546033e-005,-2.012352908265132e-006
51		1.617968284648138e+002,0.000000000000000e+000
	9.996131058282941e-001,1.966582021187309e-002
	1.000000000000000e+000,0.000000000000000e+000
	-9.996131058282942e-005,-1.966582021187727e-006
	9.996131058282942e-005,1.966582021187309e-006
	-9.996131058282942e-005,-1.966582021188136e-006
52		1.655655607412952e+002,0.000000000000000e+000
	9.996305125005208e-001,1.921850614555506e-002
	1.000000000000000e+000,0.000000000000000e+000
	-9.996305125005209e-005,-1.921850614556406e-006
	9.996305125005209e-005,1.921850614555506e-006
	-9.996305125005209e-005,-1.921850614556436e-006
53		1.694220780696010e+002,0.000000000000000e+000
	9.996471363093608e-001,1.878135186441669e-002
	1.000000000000000e+000,0.000000000000000e+000
	-9.996471363093609e-005,-1.878135186441931e-006
	9.996471363093608e-005,1.878135186441669e-006
	-9.996471363093609e-005,-1.878135186442198e-006
54		1.733684252262655e+002,0.000000000000000e+000
	9.996630124397014e-001,1.835412759252650e-002
	1.000000000000000e+000,0.000000000000000e+000
	-9.996630124397014e-005,-1.835412759253265e-006
	9.996630124397014e-005,1.835412759252650e-006
	-9.996630124397014e-005,-1.835412759253370e-006
55		1.774066946167874e+002,0.000000000000000e+000
	9.996781744972257e-001,1.793660868503216e-002
	1.000000000000000e+000,0.000000000000000e+000
	-9.996781744972256e-005,-1.793660868503537e-006
	9.996781744972258e-005,1.793660868503216e-006
	-9.996781744972256e-005,-1.793660868503952e-006
56		1.815390273850503e+002,0.000000000000000e+000
	9.996926545791030e-001,1.752857551797430e-002
	1.000000000000000e+000,0.000000000000000e+000
	-9.996926545791031e-005,-1.752857551797313e-006
	9.996926545791030e-005,1.752857551797430e-006
	-9.996926545791031e-005,-1.752857551797632e-006
57		1.857676145485859e+002,0.000000000000000e+000
	9.997064833415318e-001,1.712981338016880e-002
	1.000000000000000e+000,0.000000000000000e+000
	-9.997064833415316e-005,-1.712981338016937e-006
	9.997064833415319e-005,1.712981338016880e-006
	-9.997064833415316e-005,-1.712981338016992e-006
58		1.900946981602802e+002,0.000000000000000e+000
	9.997196900642755e-001,1.674011236713942e-002
	1.000000000000000e+000,0.000000000000000e+000
	-9.997196900642757e-005,-1.674011236713683e-006
	9.997196900642756e-005,1.674011236713942e-006
	-9.997196900642757e-005,-1.674011236713936e-006
59		1.945225724971399e+002,0.000000000000000e+000
	9.997323027123191e-001,1.635926727708149e-002
	1.000000000000000e+000,0.000000000000000e+000
	-9.997323027123191e-005,-1.635926727708912e-006
	9.997323027123191e-005,1.635926727708149e-006
	-9.997323027123191e-005,-1.635926727709160e-006
60		1.990535852767482e+002,0.000000000000000e+000
	9.997443479947786e-001,1.598707750883595e-002
	1.000000000000000e+000,0.000000000000000e+000
	-9.997443479947788e-005,-1.598707750884046e-006
	9.997443479947786e-005,1.598707750883595e-006
	-9.997443479947788e-005,-1.598707750884165e-006
61		2.036901389020559e+002,0.000000000000000e+000
	9.997558514211811e-001,1.562334696185152e-002
	1.000000000000000e+000,0.000000000000000e+000
	-9.997558514211811e-005,-1.562334696185168e-006
	9.997558514211811e-005,1.562334696185152e-006
	-9.997558514211811e-005,-1.562334696184921e-006
62		2.084346917351673e+002,0.000000000000000e+000
	9.997668373552335e-001,1.526788393811220e-002
	1.000000000000000e+000,0.000000000000000e+000
	-9.997668373552337e-005,-1.526788393810515e-006
	9.997668373552335e-005,1.526788393811221e-006
	-9.997668373552337e-005,-1.526788393810263e-006
63		2.132897594007959e+002,0.000000000000000e+000
	9.997773290661915e-001,1.492050104600597e-002
	1.000000000000000e+000,0.000000000000000e+000
	-9.997773290661917e-005,-1.492050104599437e-006
	9.997773290661917e-005,1.492050104600598e-006
	-9.997773290661917e-005,-1.492050104599796e-006
64		2.182579161200825e+002,0.000000000000000e+000
	9.997873487779332e-001,1.458101510610984e-002
	1.000000000000000e+000,0.000000000000000e+000
	-9.997873487779333e-005,-1.458101510610762e-006
	9.997873487779333e-005,1.458101510610984e-006
	-9.997873487779333e-005,-1.458101510610869e-006
65		2.233417960754811e+002,0.000000000000000e+000
	9.997969177158412e-001,1.424924705886575e-002
	1.000000000000000e+000,0.000000000000000e+000
	-9.997969177158413e-005,-1.424924705886855e-006
	9.997969177158413e-005,1.424924705886575e-006
	-9.997969177158413e-005,-1.424924705887253e-006
66		2.285440948074370e+002,0.000000000000000e+000
	9.998060561515889e-001,1.392502187412111e-002
	1.000000000000000e+000,0.000000000000000e+000
	-9.998060561515888e-005,-1.392502187412150e-006
	9.998060561515889e-005,1.392502187412111e-006
	-9.998060561515888e-005,-1.392502187412548e-006
67		2.338675706435986e+002,0.000000000000000e+000
	9.998147834459240e-001,1.360816846250738e-002
	1.000000000000000e+000,0.000000000000000e+000
	-9.998147834459242e-005,-1.360816846251555e-006
	9.998147834459240e-005,1.360816846250738e-006
	-9.998147834459242e-005,-1.360816846251826e-006
68		2.393150461613186e+002,0.000000000000000e+000
	9.998231180895406e-001,1.329851958862940e-002
	1.000000000000000e+000,0.000000000000000e+000
	-9.998231180895406e-005,-1.329851958862824e-006
	9.998231180895407e-005,1.329851958862940e-006
	-9.998231180895406e-005,-1.329851958862399e-006
69		2.448894096842225e+002,0.000000000000000e+000
	9.998310777421204e-001,1.299591178603815e-002
	1.000000000000000e+000,0.000000000000000e+000
	-9.998310777421204e-005,-1.299591178602849e-006
	9.998310777421205e-005,1.299591178603815e-006
	-9.998310777421204e-005,-1.299591178603211e-006
70		2.505936168136355e+002,0.000000000000000e+000
	9.998386792696291e-001,1.270018527395906e-002
	1.000000000000000e+000,0.000000000000000e+000
	-9.998386792696292e-005,-1.270018527395601e-006
	9.998386792696292e-005,1.270018527395906e-006
	-9.998386792696292e-005,-1.270018527396027e-006
71		2.564306919956818e+002,0.000000000000000e+000
	9.998459387799430e-001,1.241118387574793e-002
	1.000000000000000e+000,0.000000000000000e+000
	-9.998459387799429e-005,-1.241118387573668e-006
	9.998459387799430e-005,1.241118387574793e-006
	-9.998459387799429e-005,-1.241118387573098e-006
72		2.624037301248857e+002,0.000000000000000e+000
	9.998528716568791e-001,1.212875493904629e-002
	1.000000000000000e+000,0.000000000000000e+000
	-9.998528716568793e-005,-1.212875493905682e-006
	9.998528716568792e-005,1.212875493904629e-006
	-9.998528716568793e-005,-1.212875493905238e-006
73		2.685158981851257e+002,0.000000000000000e+000
	9.998594925927047e-001,1.185274925760789e-002
	1.000000000000000e+000,0.000000000000000e+000
	-9.998594925927047e-005,-1.185274925761559e-006
	9.998594925927047e-005,1.185274925760789e-006
	-9.998594925927047e-005,-1.185274925761745e-006
74		2.747704369288116e+002,0.000000000000000e+000
	9.998658156191868e-001,1.158302099476823e-002
	1.000000000000000e+000,0.000000000000000e+000
	-9.998658156191867e-005,-1.158302099476440e-006
	9.998658156191869e-005,1.158302099476823e-006
	-9.998658156191867e-005,-1.158302099476746e-006
75		2.811706625951738e+002,0.000000000000000e+000
	9.998718541372532e-001,1.131942760852845e-002
	1.000000000000000e+000,0.000000000000000e+000
	-9.998718541372532e-005,-1.131942760852241e-006
	9.998718541372532e-005,1.131942760852845e-006
	-9.998718541372532e-005,-1.131942760851726e-006
76		2.877199686685777e+002,0.000000000000000e+000
	9.998776209453245e-001,1.106182977822576e-002
	1.000000000000000e+000,0.000000000000000e+000
	-9.998776209453245e-005,-1.106182977822817e-006
	9.998776209453245e-005,1.106182977822576e-006
	-9.998776209453245e-005,-1.106182977822848e-006
77		2.944218276777937e+002,0.000000000000000e+000
	9.998831282663753e-001,1.081009133276187e-002
	1.000000000000000e+000,0.000000000000000e+000
	-9.998831282663752e-005,-1.081009133275828e-006
	9.998831282663754e-005,1.081009133276187e-006
	-9.998831282663752e-005,-1.081009133275732e-006
78		3.012797930371781e+002,0.000000000000000e+000
	9.998883877737820e-001,1.056407918036147e-002
	1.000000000000000e+000,0.000000000000000e+000
	-9.998883877737821e-005,-1.056407918036520e-006
	9.998883877737821e-005,1.056407918036147e-006
	-9.998883877737821e-005,-1.056407918037169e-006
79		3.082975009307403e+002,0.000000000000000e+000
	9.998934106160138e-001,1.032366323983298e-002
	1.000000000000000e+000,0.000000000000000e+000
	-9.998934106160140e-005,-1.032366323982956e-006
	9.998934106160139e-005,1.032366323983298e-006
	-9.998934106160140e-005,-1.032366323983069e-006
80		3.154786722400958e+002,0.000000000000000e+000
	9.998982074402139e-001,1.008871637330352e-002
	1.000000000000000e+000,0.000000000000000e+000
	-9.998982074402138e-005,-1.008871637329965e-006
	9.998982074402139e-005,1.008871637330352e-006
	-9.998982074402138e-005,-1.008871637330280e-006
81		3.228271145173270e+002,0.000000000000000e+000
	9.999027884147249e-001,9.859114320400842e-003
	1.000000000000000e+000,0.000000000000000e+000
	-9.999027884147249e-005,-9.859114320405654e-007
	9.999027884147249e-005,9.859114320400843e-007
	-9.999027884147249e-005,-9.859114320411727e-007
82		3.303467240037972e+002,0.000000000000000e+000
	9.999071632506037e-001,9.634735633854755e-003
	1.000000000000000e+000,0.000000000000000e+000
	-9.999071632506037e-005,-9.634735633854626e-007
	9.999071632506037e-005,9.634735633854755e-007
	-9.999071632506037e-005,-9.634735633860803e-007
83		3.380414876959900e+002,0.000000000000000e+000
	9.999113412221696e-001,9.415461616490983e-003
	1.000000000000000e+000,0.000000000000000e+000
	-9.999113412221697e-005,-9.415461616477551e-007
	9.999113412221697e-005,9.415461616490984e-007
	-9.999113412221697e-005,-9.415461616479881e-007
84		3.459154854594674e+002,0.000000000000000e+000
	9.999153311866319e-001,9.201176259590696e-003
	1.000000000000000e+000,0.000000000000000e+000
	-9.999153311866320e-005,-9.201176259600746e-007
	9.999153311866320e-005,9.201176259590697e-007
	-9.999153311866320e-005,-9.201176259607952e-007
85		3.539728921920681e+002,0.000000000000000e+000
	9.999191416028374e-001,8.991766182589196e-003
	1.000000000000000e+000,0.000000000000000e+000
	-9.999191416028374e-005,-8.991766182578819e-007
	9.999191416028374e-005,8.991766182589196e-007
	-9.999191416028374e-005,-8.991766182585986e-007
86		3.622179800374941e+002,0.000000000000000e+000
	9.999227805491729e-001,8.787120574087464e-003
	1.000000000000000e+000,0.000000000000000e+000
	-9.999227805491728e-005,-8.787120574078629e-007
	9.999227805491729e-005,8.787120574087464e-007
	-9.999227805491728e-005,-8.787120574071244e-007
87		3.706551206504578e+002,0.000000000000000e+000
	9.999262557406691e-001,8.587131134150791e-003
	1.000000000000000e+000,0.000000000000000e+000
	-9.999262557406691e-005,-8.587131134156172e-007
	9.999262557406691e-005,8.587131134150791e-007
	-9.999262557406691e-005,-8.587131134149550e-007
88		3.792887875145909e+002,0.000000000000000e+000
	9.999295745453326e-001,8.391692017868756e-003
	1.000000000000000e+000,0.000000000000000e+000
	-9.999295745453327e-005,-8.391692017865493e-007
	9.999295745453326e-005,8.391692017868756e-007
	-9.999295745453327e-005,-8.391692017870045e-007
89		3.881235583143448e+002,0.000000000000000e+000
	9.999327439997463e-001,8.200699780151456e-003
	1.000000000000000e+000,0.000000000000000e+000
	-9.999327439997466e-005,-8.200699780145997e-007
	9.999327439997463e-005,8.200699780151456e-007
	-9.999327439997466e-005,-8.200699780150367e-007
90		3.971641173621396e+002,0.000000000000000e+000
	9.999357708239693e-001,8.014053321736972e-003
	1.000000000000000e+000,0.000000000000000e+000
	-9.999357708239695e-005,-8.014053321732516e-007
	9.999357708239694e-005,8.014053321736973e-007
	-9.999357708239695e-005,-8.014053321740017e-007
91		4.064152580820485e+002,0.000000000000000e+000
	9.999386614357676e-001,7.831653836385583e-003
	1.000000000000000e+000,0.000000000000000e+000
	-9.999386614357676e-005,-7.831653836381727e-007
	9.999386614357676e-005,7.831653836385583e-007
	-9.999386614357676e-005,-7.831653836380681e-007
92		4.158818855513343e+002,0.000000000000000e+000
	9.999414219642051e-001,7.653404759236520e-003
	1.000000000000000e+000,0.000000000000000e+000
	-9.999414219642051e-005,-7.653404759225622e-007
	9.999414219642051e-005,7.653404759236520e-007
	-9.999414219642051e-005,-7.653404759232901e-007
93		4.255690191011871e+002,0.000000000000000e+000
	9.999440582626247e-001,7.479211716303390e-003
	1.000000000000000e+000,0.000000000000000e+000
	-9.999440582626248e-005,-7.479211716311518e-007
	9.999440582626247e-005,7.479211716303391e-007
	-9.999440582626248e-005,-7.479211716308887e-007
94		4.354817949780391e+002,0.000000000000000e+000
	9.999465759210466e-001,7.308982475084884e-003
	1.000000000000000e+000,0.000000000000000e+000
	-9.999465759210468e-005,-7.308982475092821e-007
	9.999465759210466e-005,7.308982475084884e-007
	-9.999465759210468e-005,-7.308982475084935e-007
95		4.456254690668715e+002,0.000000000000000e+000
	9.999489802780086e-001,7.142626896267608e-003
	1.000000000000000e+000,0.000000000000000e+000
	-9.999489802780086e-005,-7.142626896278679e-007
	9.999489802780086e-005,7.142626896267608e-007
	-9.999489802780086e-005,-7.142626896276122e-007
96		4.560054196779536e+002,0.000000000000000e+000
	9.999512764318753e-001,6.980056886498338e-003
	1.000000000000000e+000,0.000000000000000e+000
	-9.999512764318753e-005,-6.980056886475850e-007
	9.999512764318753e-005,6.980056886498339e-007
	-9.999512764318753e-005,-6.980056886478347e-007
97		4.666271503984942e+002,0.000000000000000e+000
	9.999534692516381e-001,6.821186352203365e-003
	1.000000000000000e+000,0.000000000000000e+000
	-9.999534692516380e-005,-6.821186352187017e-007
	9.999534692516382e-005,6.821186352203366e-007
	-9.999534692516380e-005,-6.821186352180819e-007
98		4.774962930107166e+002,0.000000000000000e+000
	9.999555633872319e-001,6.665931154432952e-003
	1.000000000000000e+000,0.000000000000000e+000
	-9.999555633872320e-005,-6.665931154418092e-007
	9.999555633872320e-005,6.665931154432952e-007
	-9.999555633872320e-005,-6.665931154420379e-007
99		4.886186104779039e+002,0.000000000000000e+000
	9.999575632793860e-001,6.514209064709293e-003
	1.000000000000000e+000,0.000000000000000e+000
	-9.999575632793860e-005,-6.514209064708488e-007
	9.999575632793860e-005,6.514209064709293e-007
	-9.999575632793860e-005,-6.514209064702181e-007
100		4.999999999999985e+002,0.000000000000000e+000
	9.999594731690338e-001,6.365939721856789e-003
	1.000000000000000e+000,0.000000000000000e+000
	-9.999594731690337e-005,-6.365939721838440e-007
	9.999594731690338e-005,6.365939721856790e-007
	-9.999594731690337e-005,-6.365939721822422e-007
101		5.116464961403755e+002,0.000000000000000e+000
	9.999612971062977e-001,6.221044589793755e-003
	1.000000000000000e+000,0.000000000000000e+000
	-9.999612971062978e-005,-6.221044589818325e-007
	9.999612971062977e-005,6.221044589793755e-007
	-9.999612971062978e-005,-6.221044589818647e-007
102		5.235642740254481e+002,0.000000000000000e+000
	9.999630389590738e-001,6.079446916265133e-003