Title: * C:\Draft3.asc
Date: Fri May 06 17:57:45 2016
Plotname: DC transfer characteristic
Flags: real forward
No. Variables: 6
No. Points:          241
Offset:   0.0000000000000000e+000
Command: Linear Technology Corporation LTspice IV
Variables:
	0	v1	voltage
	1	V(out)	voltage
	2	V(n001)	voltage
	3	I(C1)	device_current
	4	I(R1)	device_current
	5	I(V1)	device_current
Values:
0		1.000000000000000e-001
	4.999999999999749e-015
	1.000000000000000e-001
	-4.999999999999750e-019
	4.999999999999749e-019
	-4.999999999999749e-019
1		1.100000000000000e-001
	5.499999999999724e-015
	1.100000000000000e-001
	-5.499999999999725e-019
	5.499999999999724e-019
	-5.499999999999724e-019
2		1.200000000000000e-001
	5.999999999999699e-015
	1.200000000000000e-001
	-5.999999999999699e-019
	5.999999999999699e-019
	-5.999999999999698e-019
3		1.300000000000000e-001
	6.499999999999675e-015
	1.300000000000000e-001
	-6.499999999999675e-019
	6.499999999999676e-019
	-6.499999999999676e-019
4		1.400000000000000e-001
	6.999999999999650e-015
	1.400000000000000e-001
	-6.999999999999651e-019
	6.999999999999650e-019
	-6.999999999999651e-019
5		1.500000000000000e-001
	7.499999999999626e-015
	1.500000000000000e-001
	-7.499999999999626e-019
	7.499999999999626e-019
	-7.499999999999626e-019
6		1.600000000000000e-001
	7.999999999999600e-015
	1.600000000000000e-001
	-7.999999999999601e-019
	7.999999999999600e-019
	-7.999999999999601e-019
7		1.700000000000000e-001
	8.499999999999576e-015
	1.700000000000000e-001
	-8.499999999999576e-019
	8.499999999999576e-019
	-8.499999999999576e-019
8		1.800000000000001e-001
	8.999999999999551e-015
	1.800000000000001e-001
	-8.999999999999552e-019
	8.999999999999552e-019
	-8.999999999999552e-019
9		1.900000000000001e-001
	9.499999999999526e-015
	1.900000000000001e-001
	-9.499999999999528e-019
	9.499999999999526e-019
	-9.499999999999526e-019
10		2.000000000000001e-001
	9.999999999999503e-015
	2.000000000000001e-001
	-9.999999999999504e-019
	9.999999999999504e-019
	-9.999999999999502e-019
11		2.100000000000001e-001
	1.049999999999948e-014
	2.100000000000001e-001
	-1.049999999999948e-018
	1.049999999999948e-018
	-1.049999999999948e-018
12		2.200000000000001e-001
	1.099999999999945e-014
	2.200000000000001e-001
	-1.099999999999945e-018
	1.099999999999945e-018
	-1.099999999999945e-018
13		2.300000000000001e-001
	1.149999999999943e-014
	2.300000000000001e-001
	-1.149999999999943e-018
	1.149999999999943e-018
	-1.149999999999943e-018
14		2.400000000000001e-001
	1.199999999999940e-014
	2.400000000000001e-001
	-1.199999999999941e-018
	1.199999999999940e-018
	-1.199999999999940e-018
15		2.500000000000001e-001
	1.249999999999938e-014
	2.500000000000001e-001
	-1.249999999999938e-018
	1.249999999999938e-018
	-1.249999999999938e-018
16		2.600000000000001e-001
	1.299999999999935e-014
	2.600000000000001e-001
	-1.299999999999936e-018
	1.299999999999935e-018
	-1.299999999999936e-018
17		2.700000000000001e-001
	1.349999999999933e-014
	2.700000000000001e-001
	-1.349999999999933e-018
	1.349999999999933e-018
	-1.349999999999933e-018
18		2.800000000000001e-001
	1.399999999999931e-014
	2.800000000000001e-001
	-1.399999999999931e-018
	1.399999999999931e-018
	-1.399999999999931e-018
19		2.900000000000002e-001
	1.449999999999928e-014
	2.900000000000002e-001
	-1.449999999999928e-018
	1.449999999999928e-018
	-1.449999999999928e-018
20		3.000000000000002e-001
	1.499999999999926e-014
	3.000000000000002e-001
	-1.499999999999926e-018
	1.499999999999926e-018
	-1.499999999999926e-018
21		3.100000000000002e-001
	1.549999999999923e-014
	3.100000000000002e-001
	-1.549999999999923e-018
	1.549999999999923e-018
	-1.549999999999923e-018
22		3.200000000000002e-001
	1.599999999999921e-014
	3.200000000000002e-001
	-1.599999999999921e-018
	1.599999999999921e-018
	-1.599999999999921e-018
23		3.300000000000002e-001
	1.649999999999918e-014
	3.300000000000002e-001
	-1.649999999999918e-018
	1.649999999999918e-018
	-1.649999999999918e-018
24		3.400000000000002e-001
	1.699999999999916e-014
	3.400000000000002e-001
	-1.699999999999916e-018
	1.699999999999916e-018
	-1.699999999999916e-018
25		3.500000000000002e-001
	1.749999999999913e-014
	3.500000000000002e-001
	-1.749999999999913e-018
	1.749999999999913e-018
	-1.749999999999913e-018
26		3.600000000000002e-001
	1.799999999999911e-014
	3.600000000000002e-001
	-1.799999999999911e-018
	1.799999999999911e-018
	-1.799999999999911e-018
27		3.700000000000002e-001
	1.849999999999909e-014
	3.700000000000002e-001
	-1.849999999999909e-018
	1.849999999999909e-018
	-1.849999999999909e-018
28		3.800000000000002e-001
	1.899999999999906e-014
	3.800000000000002e-001
	-1.899999999999906e-018
	1.899999999999906e-018
	-1.899999999999906e-018
29		3.900000000000002e-001
	1.949999999999904e-014
	3.900000000000002e-001
	-1.949999999999904e-018
	1.949999999999904e-018
	-1.949999999999904e-018
30		4.000000000000002e-001
	1.999999999999901e-014
	4.000000000000002e-001
	-1.999999999999901e-018
	1.999999999999901e-018
	-1.999999999999901e-018
31		4.100000000000003e-001
	2.049999999999899e-014
	4.100000000000003e-001
	-2.049999999999899e-018
	2.049999999999899e-018
	-2.049999999999899e-018
32		4.200000000000003e-001
	2.099999999999896e-014
	4.200000000000003e-001
	-2.099999999999896e-018
	2.099999999999896e-018
	-2.099999999999896e-018
33		4.300000000000003e-001
	2.149999999999894e-014
	4.300000000000003e-001
	-2.149999999999894e-018
	2.149999999999894e-018
	-2.149999999999894e-018
34		4.400000000000003e-001
	2.199999999999891e-014
	4.400000000000003e-001
	-2.199999999999891e-018
	2.199999999999891e-018
	-2.199999999999891e-018
35		4.500000000000003e-001
	2.249999999999889e-014
	4.500000000000003e-001
	-2.249999999999889e-018
	2.249999999999889e-018
	-2.249999999999889e-018
36		4.600000000000003e-001
	2.299999999999886e-014
	4.600000000000003e-001
	-2.299999999999887e-018
	2.299999999999886e-018
	-2.299999999999886e-018
37		4.700000000000003e-001
	2.349999999999884e-014
	4.700000000000003e-001
	-2.349999999999884e-018
	2.349999999999884e-018
	-2.349999999999884e-018
38		4.800000000000003e-001
	2.399999999999882e-014
	4.800000000000003e-001
	-2.399999999999881e-018
	2.399999999999882e-018
	-2.399999999999881e-018
39		4.900000000000003e-001
	2.449999999999879e-014
	4.900000000000003e-001
	-2.449999999999879e-018
	2.449999999999879e-018
	-2.449999999999879e-018
40		5.000000000000003e-001
	2.499999999999876e-014
	5.000000000000003e-001
	-2.499999999999877e-018
	2.499999999999877e-018
	-2.499999999999876e-018
41		5.100000000000003e-001
	2.549999999999874e-014
	5.100000000000003e-001
	-2.549999999999874e-018
	2.549999999999874e-018
	-2.549999999999874e-018
42		5.200000000000004e-001
	2.599999999999872e-014
	5.200000000000004e-001
	-2.599999999999872e-018
	2.599999999999872e-018
	-2.599999999999872e-018
43		5.300000000000004e-001
	2.649999999999869e-014
	5.300000000000004e-001
	-2.649999999999869e-018
	2.649999999999869e-018
	-2.649999999999869e-018
44		5.400000000000004e-001
	2.699999999999867e-014
	5.400000000000004e-001
	-2.699999999999867e-018
	2.699999999999867e-018
	-2.699999999999867e-018
45		5.500000000000004e-001
	2.749999999999864e-014
	5.500000000000004e-001
	-2.749999999999864e-018
	2.749999999999864e-018
	-2.749999999999864e-018
46		5.600000000000004e-001
	2.799999999999862e-014
	5.600000000000004e-001
	-2.799999999999862e-018
	2.799999999999862e-018
	-2.799999999999862e-018
47		5.700000000000004e-001
	2.849999999999859e-014
	5.700000000000004e-001
	-2.849999999999859e-018
	2.849999999999859e-018
	-2.849999999999859e-018
48		5.800000000000004e-001
	2.899999999999857e-014
	5.800000000000004e-001
	-2.899999999999857e-018
	2.899999999999857e-018
	-2.899999999999857e-018
49		5.900000000000004e-001
	2.949999999999854e-014
	5.900000000000004e-001
	-2.949999999999854e-018
	2.949999999999855e-018
	-2.949999999999854e-018
50		6.000000000000004e-001
	2.999999999999852e-014
	6.000000000000004e-001
	-2.999999999999852e-018
	2.999999999999852e-018
	-2.999999999999852e-018
51		6.100000000000004e-001
	3.049999999999849e-014
	6.100000000000004e-001
	-3.049999999999849e-018
	3.049999999999850e-018
	-3.049999999999849e-018
52		6.200000000000004e-001
	3.099999999999847e-014
	6.200000000000004e-001
	-3.099999999999847e-018
	3.099999999999847e-018
	-3.099999999999847e-018
53		6.300000000000005e-001
	3.149999999999845e-014
	6.300000000000005e-001
	-3.149999999999844e-018
	3.149999999999845e-018
	-3.149999999999845e-018
54		6.400000000000005e-001
	3.199999999999842e-014
	6.400000000000005e-001
	-3.199999999999842e-018
	3.199999999999842e-018
	-3.199999999999842e-018
55		6.500000000000005e-001
	3.249999999999839e-014
	6.500000000000005e-001
	-3.249999999999839e-018
	3.249999999999839e-018
	-3.249999999999839e-018
56		6.600000000000005e-001
	3.299999999999837e-014
	6.600000000000005e-001
	-3.299999999999837e-018
	3.299999999999837e-018
	-3.299999999999837e-018
57		6.700000000000005e-001
	3.349999999999835e-014
	6.700000000000005e-001
	-3.349999999999835e-018
	3.349999999999835e-018
	-3.349999999999835e-018
58		6.800000000000005e-001
	3.399999999999832e-014
	6.800000000000005e-001
	-3.399999999999833e-018
	3.399999999999833e-018
	-3.399999999999833e-018
59		6.900000000000005e-001
	3.449999999999829e-014
	6.900000000000005e-001
	-3.449999999999830e-018
	3.449999999999830e-018
	-3.449999999999830e-018
60		7.000000000000005e-001
	3.499999999999827e-014
	7.000000000000005e-001
	-3.499999999999827e-018
	3.499999999999827e-018
	-3.499999999999827e-018
61		7.100000000000005e-001
	3.549999999999825e-014
	7.100000000000005e-001
	-3.549999999999825e-018
	3.549999999999826e-018
	-3.549999999999826e-018
62		7.200000000000005e-001
	3.599999999999823e-014
	7.200000000000005e-001
	-3.599999999999822e-018
	3.599999999999823e-018
	-3.599999999999822e-018
63		7.300000000000005e-001
	3.649999999999820e-014
	7.300000000000005e-001
	-3.649999999999820e-018
	3.649999999999820e-018
	-3.649999999999820e-018
64		7.400000000000006e-001
	3.699999999999818e-014
	7.400000000000006e-001
	-3.699999999999818e-018
	3.699999999999818e-018
	-3.699999999999818e-018
65		7.500000000000006e-001
	3.749999999999815e-014
	7.500000000000006e-001
	-3.749999999999815e-018
	3.749999999999815e-018
	-3.749999999999815e-018
66		7.600000000000006e-001
	3.799999999999813e-014
	7.600000000000006e-001
	-3.799999999999813e-018
	3.799999999999813e-018
	-3.799999999999813e-018
67		7.700000000000006e-001
	3.849999999999810e-014
	7.700000000000006e-001
	-3.849999999999810e-018
	3.849999999999810e-018
	-3.849999999999810e-018
68		7.800000000000006e-001
	3.899999999999807e-014
	7.800000000000006e-001
	-3.899999999999808e-018
	3.899999999999808e-018
	-3.899999999999808e-018
69		7.900000000000006e-001
	3.949999999999805e-014
	7.900000000000006e-001
	-3.949999999999805e-018
	3.949999999999806e-018
	-3.949999999999806e-018
70		8.000000000000006e-001
	3.999999999999803e-014
	8.000000000000006e-001
	-3.999999999999803e-018
	3.999999999999802e-018
	-3.999999999999802e-018
71		8.100000000000006e-001
	4.049999999999800e-014
	8.100000000000006e-001
	-4.049999999999800e-018
	4.049999999999800e-018
	-4.049999999999800e-018
72		8.200000000000006e-001
	4.099999999999798e-014
	8.200000000000006e-001
	-4.099999999999798e-018
	4.099999999999798e-018
	-4.099999999999798e-018
73		8.300000000000006e-001
	4.149999999999795e-014
	8.300000000000006e-001
	-4.149999999999795e-018
	4.149999999999795e-018
	-4.149999999999795e-018
74		8.400000000000006e-001
	4.199999999999793e-014
	8.400000000000006e-001
	-4.199999999999793e-018
	4.199999999999793e-018
	-4.199999999999793e-018
75		8.500000000000006e-001
	4.249999999999790e-014
	8.500000000000006e-001
	-4.249999999999790e-018
	4.249999999999790e-018
	-4.249999999999790e-018
76		8.600000000000007e-001
	4.299999999999787e-014
	8.600000000000007e-001
	-4.299999999999788e-018
	4.299999999999788e-018
	-4.299999999999788e-018
77		8.700000000000007e-001
	4.349999999999785e-014
	8.700000000000007e-001
	-4.349999999999785e-018
	4.349999999999785e-018
	-4.349999999999786e-018
78		8.800000000000007e-001
	4.399999999999783e-014
	8.800000000000007e-001
	-4.399999999999783e-018
	4.399999999999783e-018
	-4.399999999999783e-018
79		8.900000000000007e-001
	4.449999999999781e-014
	8.900000000000007e-001
	-4.449999999999781e-018
	4.449999999999781e-018
	-4.449999999999781e-018
80		9.000000000000007e-001
	4.499999999999778e-014
	9.000000000000007e-001
	-4.499999999999778e-018
	4.499999999999778e-018
	-4.499999999999778e-018
81		9.100000000000007e-001
	4.549999999999775e-014
	9.100000000000007e-001
	-4.549999999999776e-018
	4.549999999999775e-018
	-4.549999999999776e-018
82		9.200000000000007e-001
	4.599999999999773e-014
	9.200000000000007e-001
	-4.599999999999774e-018
	4.599999999999774e-018
	-4.599999999999773e-018
83		9.300000000000007e-001
	4.649999999999771e-014
	9.300000000000007e-001
	-4.649999999999770e-018
	4.649999999999771e-018
	-4.649999999999770e-018
84		9.400000000000007e-001
	4.699999999999769e-014
	9.400000000000007e-001
	-4.699999999999769e-018
	4.699999999999769e-018
	-4.699999999999769e-018
85		9.500000000000007e-001
	4.749999999999766e-014
	9.500000000000007e-001
	-4.749999999999766e-018
	4.749999999999766e-018
	-4.749999999999766e-018
86		9.600000000000007e-001
	4.799999999999763e-014
	9.600000000000007e-001
	-4.799999999999763e-018
	4.799999999999763e-018
	-4.799999999999763e-018
87		9.700000000000008e-001
	4.849999999999761e-014
	9.700000000000008e-001
	-4.849999999999761e-018
	4.849999999999762e-018
	-4.849999999999761e-018
88		9.800000000000008e-001
	4.899999999999758e-014
	9.800000000000008e-001
	-4.899999999999758e-018
	4.899999999999758e-018
	-4.899999999999758e-018
89		9.900000000000008e-001
	4.949999999999756e-014
	9.900000000000008e-001
	-4.949999999999756e-018
	4.949999999999756e-018
	-4.949999999999756e-018
90		1.000000000000001e+000
	4.999999999999753e-014
	1.000000000000001e+000
	-4.999999999999753e-018
	4.999999999999753e-018
	-4.999999999999752e-018
91		1.010000000000001e+000
	5.049999999999751e-014
	1.010000000000001e+000
	-5.049999999999751e-018
	5.049999999999751e-018
	-5.049999999999751e-018
92		1.020000000000001e+000
	5.099999999999748e-014
	1.020000000000001e+000
	-5.099999999999748e-018
	5.099999999999748e-018
	-5.099999999999748e-018
93		1.030000000000001e+000
	5.149999999999746e-014
	1.030000000000001e+000
	-5.149999999999745e-018
	5.149999999999746e-018
	-5.149999999999746e-018
94		1.040000000000001e+000
	5.199999999999743e-014
	1.040000000000001e+000
	-5.199999999999744e-018
	5.199999999999744e-018
	-5.199999999999744e-018
95		1.050000000000001e+000
	5.249999999999740e-014
	1.050000000000001e+000
	-5.249999999999741e-018
	5.249999999999741e-018
	-5.249999999999740e-018
96		1.060000000000001e+000
	5.299999999999738e-014
	1.060000000000001e+000
	-5.299999999999738e-018
	5.299999999999738e-018
	-5.299999999999738e-018
97		1.070000000000001e+000
	5.349999999999736e-014
	1.070000000000001e+000
	-5.349999999999736e-018
	5.349999999999736e-018
	-5.349999999999736e-018
98		1.080000000000001e+000
	5.399999999999733e-014
	1.080000000000001e+000
	-5.399999999999733e-018
	5.399999999999734e-018
	-5.399999999999734e-018
99		1.090000000000001e+000
	5.449999999999731e-014
	1.090000000000001e+000
	-5.449999999999731e-018
	5.449999999999731e-018
	-5.449999999999731e-018
100		1.100000000000001e+000
	5.499999999999728e-014
	1.100000000000001e+000
	-5.499999999999728e-018
	5.499999999999728e-018
	-5.499999999999728e-018
101		1.110000000000001e+000
	5.549999999999726e-014
	1.110000000000001e+000
	-5.549999999999726e-018
	5.549999999999726e-018
	-5.549999999999726e-018
102		1.120000000000001e+000
	5.599999999999723e-014
	1.120000000000001e+000
	-5.599999999999724e-018
	5.599999999999724e-018
	-5.599999999999724e-018
103		1.130000000000001e+000
	5.649999999999720e-014
	1.130000000000001e+000
	-5.649999999999721e-018
	5.649999999999720e-018
	-5.649999999999720e-018
104		1.140000000000001e+000
	5.699999999999718e-014
	1.140000000000001e+000
	-5.699999999999719e-018
	5.699999999999719e-018
	-5.699999999999719e-018
105		1.150000000000001e+000
	5.749999999999716e-014
	1.150000000000001e+000
	-5.749999999999716e-018
	5.749999999999716e-018
	-5.749999999999716e-018
106		1.160000000000001e+000
	5.799999999999714e-014
	1.160000000000001e+000
	-5.799999999999714e-018
	5.799999999999714e-018
	-5.799999999999714e-018
107		1.170000000000001e+000
	5.849999999999711e-014
	1.170000000000001e+000
	-5.849999999999712e-018
	5.849999999999712e-018
	-5.849999999999711e-018
108		1.180000000000001e+000
	5.899999999999709e-014
	1.180000000000001e+000
	-5.899999999999708e-018
	5.899999999999709e-018
	-5.899999999999708e-018
109		1.190000000000001e+000
	5.949999999999706e-014
	1.190000000000001e+000
	-5.949999999999706e-018
	5.949999999999706e-018
	-5.949999999999706e-018
110		1.200000000000001e+000
	5.999999999999703e-014
	1.200000000000001e+000
	-5.999999999999704e-018
	5.999999999999703e-018
	-5.999999999999704e-018
111		1.210000000000001e+000
	6.049999999999702e-014
	1.210000000000001e+000
	-6.049999999999702e-018
	6.049999999999702e-018
	-6.049999999999701e-018
112		1.220000000000001e+000
	6.099999999999699e-014
	1.220000000000001e+000
	-6.099999999999699e-018
	6.099999999999700e-018
	-6.099999999999699e-018
113		1.230000000000001e+000
	6.149999999999696e-014
	1.230000000000001e+000
	-6.149999999999696e-018
	6.149999999999696e-018
	-6.149999999999696e-018
114		1.240000000000001e+000
	6.199999999999693e-014
	1.240000000000001e+000
	-6.199999999999694e-018
	6.199999999999694e-018
	-6.199999999999694e-018
115		1.250000000000001e+000
	6.249999999999691e-014
	1.250000000000001e+000
	-6.249999999999692e-018
	6.249999999999691e-018
	-6.249999999999691e-018
116		1.260000000000001e+000
	6.299999999999689e-014
	1.260000000000001e+000
	-6.299999999999688e-018
	6.299999999999689e-018
	-6.299999999999689e-018
117		1.270000000000001e+000
	6.349999999999686e-014
	1.270000000000001e+000
	-6.349999999999687e-018
	6.349999999999687e-018
	-6.349999999999687e-018
118		1.280000000000001e+000
	6.399999999999684e-014
	1.280000000000001e+000
	-6.399999999999684e-018
	6.399999999999684e-018
	-6.399999999999684e-018
119		1.290000000000001e+000
	6.449999999999681e-014
	1.290000000000001e+000
	-6.449999999999682e-018
	6.449999999999681e-018
	-6.449999999999681e-018
120		1.300000000000001e+000
	6.499999999999678e-014
	1.300000000000001e+000
	-6.499999999999679e-018
	6.499999999999679e-018
	-6.499999999999679e-018
121		1.310000000000001e+000
	6.549999999999677e-014
	1.310000000000001e+000
	-6.549999999999677e-018
	6.549999999999677e-018
	-6.549999999999677e-018
122		1.320000000000001e+000
	6.599999999999674e-014
	1.320000000000001e+000
	-6.599999999999675e-018
	6.599999999999675e-018
	-6.599999999999675e-018
123		1.330000000000001e+000
	6.649999999999671e-014
	1.330000000000001e+000
	-6.649999999999673e-018
	6.649999999999672e-018
	-6.649999999999671e-018
124		1.340000000000001e+000
	6.699999999999670e-014
	1.340000000000001e+000
	-6.699999999999669e-018
	6.699999999999670e-018
	-6.699999999999669e-018
125		1.350000000000001e+000
	6.749999999999667e-014
	1.350000000000001e+000
	-6.749999999999667e-018
	6.749999999999668e-018
	-6.749999999999667e-018
126		1.360000000000001e+000
	6.799999999999664e-014
	1.360000000000001e+000
	-6.799999999999665e-018
	6.799999999999665e-018
	-6.799999999999665e-018
127		1.370000000000001e+000
	6.849999999999662e-014
	1.370000000000001e+000
	-6.849999999999662e-018
	6.849999999999662e-018
	-6.849999999999662e-018
128		1.380000000000001e+000
	6.899999999999659e-014
	1.380000000000001e+000
	-6.899999999999659e-018
	6.899999999999659e-018
	-6.899999999999659e-018
129		1.390000000000001e+000
	6.949999999999656e-014
	1.390000000000001e+000
	-6.949999999999657e-018
	6.949999999999657e-018
	-6.949999999999656e-018
130		1.400000000000001e+000
	6.999999999999655e-014
	1.400000000000001e+000
	-6.999999999999655e-018
	6.999999999999655e-018
	-6.999999999999655e-018
131		1.410000000000001e+000
	7.049999999999652e-014
	1.410000000000001e+000
	-7.049999999999652e-018
	7.049999999999652e-018
	-7.049999999999652e-018
132		1.420000000000001e+000
	7.099999999999650e-014
	1.420000000000001e+000
	-7.099999999999649e-018
	7.099999999999651e-018
	-7.099999999999651e-018
133		1.430000000000001e+000
	7.149999999999646e-014
	1.430000000000001e+000
	-7.149999999999647e-018
	7.149999999999647e-018
	-7.149999999999647e-018
134		1.440000000000001e+000
	7.199999999999645e-014
	1.440000000000001e+000
	-7.199999999999644e-018
	7.199999999999646e-018
	-7.199999999999644e-018
135		1.450000000000001e+000
	7.249999999999642e-014
	1.450000000000001e+000
	-7.249999999999642e-018
	7.249999999999643e-018
	-7.249999999999643e-018
136		1.460000000000001e+000
	7.299999999999640e-014
	1.460000000000001e+000
	-7.299999999999639e-018
	7.299999999999639e-018
	-7.299999999999639e-018
137		1.470000000000001e+000
	7.349999999999637e-014
	1.470000000000001e+000
	-7.349999999999637e-018
	7.349999999999637e-018
	-7.349999999999637e-018
138		1.480000000000001e+000
	7.399999999999635e-014
	1.480000000000001e+000
	-7.399999999999636e-018
	7.399999999999636e-018
	-7.399999999999636e-018
139		1.490000000000001e+000
	7.449999999999631e-014
	1.490000000000001e+000
	-7.449999999999631e-018
	7.449999999999631e-018
	-7.449999999999631e-018
140		1.500000000000001e+000
	7.499999999999630e-014
	1.500000000000001e+000
	-7.499999999999630e-018
	7.499999999999630e-018
	-7.499999999999630e-018
141		1.510000000000001e+000
	7.549999999999627e-014
	1.510000000000001e+000
	-7.549999999999628e-018
	7.549999999999628e-018
	-7.549999999999628e-018
142		1.520000000000001e+000
	7.599999999999626e-014
	1.520000000000001e+000
	-7.599999999999625e-018
	7.599999999999625e-018
	-7.599999999999625e-018
143		1.530000000000001e+000
	7.649999999999622e-014
	1.530000000000001e+000
	-7.649999999999623e-018
	7.649999999999623e-018
	-7.649999999999623e-018
144		1.540000000000001e+000
	7.699999999999620e-014
	1.540000000000001e+000
	-7.699999999999620e-018
	7.699999999999620e-018
	-7.699999999999620e-018
145		1.550000000000001e+000
	7.749999999999619e-014
	1.550000000000001e+000
	-7.749999999999618e-018
	7.749999999999619e-018
	-7.749999999999618e-018
146		1.560000000000001e+000
	7.799999999999615e-014
	1.560000000000001e+000
	-7.799999999999615e-018
	7.799999999999615e-018
	-7.799999999999615e-018
147		1.570000000000001e+000
	7.849999999999613e-014
	1.570000000000001e+000
	-7.849999999999612e-018
	7.849999999999614e-018
	-7.849999999999612e-018
148		1.580000000000001e+000
	7.899999999999610e-014
	1.580000000000001e+000
	-7.899999999999610e-018
	7.899999999999611e-018
	-7.899999999999611e-018
149		1.590000000000001e+000
	7.949999999999606e-014
	1.590000000000001e+000
	-7.949999999999607e-018
	7.949999999999607e-018
	-7.949999999999607e-018
150		1.600000000000001e+000
	7.999999999999605e-014
	1.600000000000001e+000
	-7.999999999999606e-018
	7.999999999999605e-018
	-7.999999999999605e-018
151		1.610000000000001e+000
	8.049999999999604e-014
	1.610000000000001e+000
	-8.049999999999602e-018
	8.049999999999604e-018
	-8.049999999999604e-018
152		1.620000000000001e+000
	8.099999999999600e-014
	1.620000000000001e+000
	-8.099999999999599e-018
	8.099999999999599e-018
	-8.099999999999599e-018
153		1.630000000000001e+000
	8.149999999999598e-014
	1.630000000000001e+000
	-8.149999999999598e-018
	8.149999999999598e-018
	-8.149999999999598e-018
154		1.640000000000001e+000
	8.199999999999595e-014
	1.640000000000001e+000
	-8.199999999999596e-018
	8.199999999999596e-018
	-8.199999999999596e-018
155		1.650000000000001e+000
	8.249999999999594e-014
	1.650000000000001e+000
	-8.249999999999593e-018
	8.249999999999595e-018
	-8.249999999999593e-018
156		1.660000000000001e+000
	8.299999999999590e-014
	1.660000000000001e+000
	-8.299999999999591e-018
	8.299999999999591e-018
	-8.299999999999591e-018
157		1.670000000000001e+000
	8.349999999999588e-014
	1.670000000000001e+000
	-8.349999999999588e-018
	8.349999999999588e-018
	-8.349999999999588e-018
158		1.680000000000001e+000
	8.399999999999586e-014
	1.680000000000001e+000
	-8.399999999999586e-018
	8.399999999999586e-018
	-8.399999999999586e-018
159		1.690000000000001e+000
	8.449999999999583e-014
	1.690000000000001e+000
	-8.449999999999583e-018
	8.449999999999583e-018
	-8.449999999999583e-018
160		1.700000000000001e+000
	8.499999999999580e-014
	1.700000000000001e+000
	-8.499999999999580e-018
	8.499999999999580e-018
	-8.499999999999580e-018
161		1.710000000000001e+000
	8.549999999999579e-014
	1.710000000000001e+000
	-8.549999999999578e-018
	8.549999999999579e-018
	-8.549999999999579e-018
162		1.720000000000001e+000
	8.599999999999575e-014
	1.720000000000001e+000
	-8.599999999999577e-018
	8.599999999999575e-018
	-8.599999999999575e-018
163		1.730000000000001e+000
	8.649999999999573e-014
	1.730000000000001e+000
	-8.649999999999573e-018
	8.649999999999574e-018
	-8.649999999999573e-018
164		1.740000000000001e+000
	8.699999999999570e-014
	1.740000000000001e+000
	-8.699999999999570e-018
	8.699999999999570e-018
	-8.699999999999572e-018
165		1.750000000000001e+000
	8.749999999999569e-014
	1.750000000000001e+000
	-8.749999999999569e-018
	8.749999999999569e-018
	-8.749999999999569e-018
166		1.760000000000001e+000
	8.799999999999565e-014
	1.760000000000001e+000
	-8.799999999999566e-018
	8.799999999999565e-018
	-8.799999999999565e-018
167		1.770000000000001e+000
	8.849999999999563e-014
	1.770000000000001e+000
	-8.849999999999562e-018
	8.849999999999564e-018
	-8.849999999999564e-018
168		1.780000000000001e+000
	8.899999999999562e-014
	1.780000000000001e+000
	-8.899999999999561e-018
	8.899999999999563e-018
	-8.899999999999561e-018
169		1.790000000000001e+000
	8.949999999999558e-014
	1.790000000000001e+000
	-8.949999999999559e-018
	8.949999999999559e-018
	-8.949999999999559e-018
170		1.800000000000001e+000
	8.999999999999555e-014
	1.800000000000001e+000
	-8.999999999999556e-018
	8.999999999999556e-018
	-8.999999999999556e-018
171		1.810000000000001e+000
	9.049999999999554e-014
	1.810000000000001e+000
	-9.049999999999554e-018
	9.049999999999554e-018
	-9.049999999999554e-018
172		1.820000000000001e+000
	9.099999999999550e-014
	1.820000000000001e+000
	-9.099999999999551e-018
	9.099999999999549e-018
	-9.099999999999551e-018
173		1.830000000000001e+000
	9.149999999999548e-014
	1.830000000000001e+000
	-9.149999999999548e-018
	9.149999999999548e-018
	-9.149999999999548e-018
174		1.840000000000001e+000
	9.199999999999547e-014
	1.840000000000001e+000
	-9.199999999999547e-018
	9.199999999999547e-018
	-9.199999999999546e-018
175		1.850000000000001e+000
	9.249999999999544e-014
	1.850000000000001e+000
	-9.249999999999543e-018
	9.249999999999545e-018
	-9.249999999999545e-018
176		1.860000000000001e+000
	9.299999999999541e-014
	1.860000000000001e+000
	-9.299999999999541e-018
	9.299999999999542e-018
	-9.299999999999541e-018
177		1.870000000000001e+000
	9.349999999999539e-014
	1.870000000000001e+000
	-9.349999999999540e-018
	9.349999999999540e-018
	-9.349999999999540e-018
178		1.880000000000001e+000
	9.399999999999537e-014
	1.880000000000001e+000
	-9.399999999999537e-018
	9.399999999999537e-018
	-9.399999999999537e-018
179		1.890000000000002e+000
	9.449999999999533e-014
	1.890000000000002e+000
	-9.449999999999533e-018
	9.449999999999533e-018
	-9.449999999999533e-018
180		1.900000000000002e+000
	9.499999999999532e-014
	1.900000000000002e+000
	-9.499999999999532e-018
	9.499999999999532e-018
	-9.499999999999532e-018
181		1.910000000000002e+000
	9.549999999999529e-014
	1.910000000000002e+000
	-9.549999999999529e-018
	9.549999999999529e-018
	-9.549999999999529e-018
182		1.920000000000002e+000
	9.599999999999526e-014
	1.920000000000002e+000
	-9.599999999999527e-018
	9.599999999999527e-018
	-9.599999999999525e-018
183		1.930000000000002e+000
	9.649999999999523e-014
	1.930000000000002e+000
	-9.649999999999524e-018
	9.649999999999524e-018
	-9.649999999999524e-018
184		1.940000000000002e+000
	9.699999999999522e-014
	1.940000000000002e+000
	-9.699999999999522e-018
	9.699999999999523e-018
	-9.699999999999522e-018
185		1.950000000000002e+000
	9.749999999999519e-014
	1.950000000000002e+000
	-9.749999999999519e-018
	9.749999999999519e-018
	-9.749999999999521e-018
186		1.960000000000002e+000
	9.799999999999517e-014
	1.960000000000002e+000
	-9.799999999999516e-018
	9.799999999999516e-018
	-9.799999999999516e-018
187		1.970000000000002e+000
	9.849999999999514e-014
	1.970000000000002e+000
	-9.849999999999514e-018
	9.849999999999514e-018
	-9.849999999999514e-018
188		1.980000000000002e+000
	9.899999999999512e-014
	1.980000000000002e+000
	-9.899999999999511e-018
	9.899999999999513e-018
	-9.899999999999513e-018
189		1.990000000000002e+000
	9.949999999999508e-014
	1.990000000000002e+000
	-9.949999999999510e-018
	9.949999999999509e-018
	-9.949999999999509e-018
190		2.000000000000001e+000
	9.999999999999506e-014
	2.000000000000001e+000
	-9.999999999999506e-018
	9.999999999999506e-018
	-9.999999999999505e-018
191		2.010000000000001e+000
	1.004999999999950e-013
	2.010000000000001e+000
	-1.004999999999950e-017
	1.004999999999950e-017
	-1.004999999999950e-017
192		2.020000000000001e+000
	1.009999999999950e-013
	2.020000000000001e+000
	-1.009999999999950e-017
	1.009999999999950e-017
	-1.009999999999950e-017
193		2.030000000000001e+000
	1.014999999999950e-013
	2.030000000000001e+000
	-1.014999999999949e-017
	1.014999999999950e-017
	-1.014999999999950e-017
194		2.040000000000001e+000
	1.019999999999949e-013
	2.040000000000001e+000
	-1.019999999999949e-017
	1.019999999999949e-017
	-1.019999999999949e-017
195		2.050000000000000e+000
	1.024999999999949e-013
	2.050000000000000e+000
	-1.024999999999949e-017
	1.024999999999949e-017
	-1.024999999999949e-017
196		2.060000000000000e+000
	1.029999999999948e-013
	2.060000000000000e+000
	-1.029999999999949e-017
	1.029999999999949e-017
	-1.029999999999949e-017
197		2.070000000000000e+000
	1.034999999999948e-013
	2.070000000000000e+000
	-1.034999999999948e-017
	1.034999999999948e-017
	-1.034999999999948e-017
198		2.080000000000000e+000